54
Lattice="9.48 0.0 0.0 0.0 9.48 0.0 0.0 0.0 9.48" Properties=species:S:1:pos:R:3 energy=-379.9437893879813 free_energy=-379.9437893879813 pbc="T T T"
Ni      -0.26222267      -0.06747963       0.44474961
Ti       1.68054971       1.13326231       1.87100978
Ti      -0.44798563      -0.26411206       3.21301775
Ti       1.65625842       1.30750546       4.78221440
Ni      -0.48237117       0.67689367       5.83353526
Ni       1.49537385       1.76338834       7.52657074
Ti       0.60088326       2.87274898       0.31768334
Ti       2.27979074       5.18062988       1.22469590
Ti       0.59651189       3.53991926       3.18735036
Ni       1.21923410       5.36803875       5.17789679
Ti       0.01382981       3.32847779       6.12023958
Ti       1.62796115       4.65852463       8.07599347
Ti      -0.08956713       6.60870442       0.11763221
Ni       1.63692381       8.00583082       1.39221335
Ti       0.20776064       6.50016823       3.07707673
Ni       0.97408492       8.06688949       5.16550580
Ni       0.17814425       6.37956072       7.14867297
Ti       0.77616314       8.77375456       7.59413430
Ti       3.10140230       0.20373431      -0.48713788
Ni       4.13280654       0.62801107       1.81737352
Hf       2.98926797      -1.09404106       3.63012296
Ti       4.84545139       1.20723257       4.76029253
Ni       3.12485801      -0.13173960       6.36343515
Ni       4.99128823       1.51280769       7.61286072
Ti       3.69861205       2.93479477       0.03674055
Ni       5.08073632       4.78189205       1.46055075
Ni       3.26429333       3.01859949       2.75512976
Ni       5.48826016       3.87844694       4.25776128
Hf       3.38394092       3.53790755       6.11674736
Ni       4.08465121       5.36460020       8.47758776
Ni       2.37004513       7.10287786      -0.76482924
Hf       4.49420179       7.41170143       1.02110168
Ti       3.45503634       5.41494554       3.66038837
Ni       5.19726351       8.12631626       5.05403080
Ti       2.97817365       6.76600224       6.32682445
Ti       5.22115216       8.22937582       7.55398321
Ti       6.31244333       0.35481258       0.28269415
Ni       8.14350916       1.78243535       1.68116928
Ni       6.36327388      -0.08479471       2.94376051
Ti       7.63792886       2.10841333       4.25221440
Ni       6.77295008       0.48677648       6.36384083
Ti       8.25413251       1.53974264       8.15210917
Ni       6.40836398       3.04627967      -0.17591823
Ti       7.82921601       4.53558845       1.59194951
Ti       5.72361602       2.47080215       2.21450044
Ni       8.06086239       4.79468373       4.41564153
Ti       6.55706627       3.40991076       6.57822000
Ni       8.50200770       4.25872985       8.36303370
Ti       6.61873686       5.88506673      -0.82005816
Ni       7.40187943       7.58380663       1.40459927
Ti       6.15295393       6.32101761       3.40237146
Hf       7.82702095       7.50154311       5.65318018
Ni       5.43486438       5.78603882       6.19238744
Ni       7.80468855       8.25087305       8.25458525
54
Lattice="9.48 0.0 0.0 0.0 9.48 0.0 0.0 0.0 9.48" Properties=species:S:1:pos:R:3 energy=-379.9437893879813 free_energy=-379.9437893879813 pbc="T T T"
Ti      -0.21998301      -0.04100392      -0.21197026
Ti       1.55159429       1.24103720       1.50162343
Ni       0.69619897       0.61886446       3.77940088
Ni       2.25763238       2.10460688       5.16973568
Hf       0.22162048       0.37505309       6.42945122
Ni       1.85982538       1.98601500       7.74405562
Ti      -0.29833703       2.63472687      -0.48909082
Ni       0.62767790       4.45469209       1.07550070
Ti       0.33133281       3.27111922       3.27815933
Ni       1.72485279       4.89323010       4.69162815
Ti       0.06911582       3.27045424       6.11567132
Ni       1.01551745       4.83277646       8.01176272
Ti       0.57000829       6.84184379       0.34782787
Ni       1.98231214       8.28647849       2.19161010
Ni      -0.14408584       6.05165150       3.13390060
Ti       1.46095096       7.63153880       4.57999741
Ti      -0.56913128       5.87432826       5.81461128
Ni       1.12105858       7.42850365       7.32568403
Ni       2.50219730      -0.67749797      -0.31749613
Ni       4.24052782       1.02413390       0.97904651
Ti       3.67814226       0.38684044       3.56603096
Ti       5.05956407       2.23788370       5.43813506
Ti       3.13310322      -0.18886373       6.44242718
Ni       4.35458774       1.73621338       7.91001212
Hf       2.94247186       3.45011387       0.13654789
Hf       5.37406356       4.97966670       1.53375367
Ti       3.32748807       3.09930177       3.13993451
Ni       4.45935500       4.93019483       4.38528289
Ti       3.17414682       4.04326503       6.60570215
Ni       5.15423716       4.26621049       8.31458626
Ti       3.40082820       6.35907546      -0.80515725
Ti       4.57071186       7.99421830       1.51029765
Ti       2.50737663       5.79527995       2.39381881
Ni       4.07343810       7.41028129       3.97983189
Ni       3.21022860       6.61853166       6.15653700
Ti       5.19388883       8.77526616       8.37116505
Ni       6.83160727      -0.01671331       0.61870973
Ni       8.39659845       1.53359158       1.82841952
Ni       6.28080852      -0.15059174       3.00836858
Ti       7.75360283       1.41035653       4.37502176
Ti       5.84097116      -0.53573352       5.51288349
Ni       7.21308250       0.91455589       7.55686911
Ti       6.31480329       2.34807797       0.07382630
Ni       7.77563846       3.80762854       1.62357363
Ni       5.80825168       2.27215439       2.72219633
Ti       7.06849427       4.11949782       4.18035801
Ni       7.11180116       3.39884285       6.73372976
Ti       7.80486331       5.02498787       8.69261625
Ni       7.19218879       7.13723847       0.73335905
Ti       8.78393722       8.57051584       2.35397399
Ti       6.67615633       6.85612968       3.52051041
Ni       8.30522126       8.26201007       4.78287664
Hf       5.75728412       5.99132084       6.42520813
Ti       7.83844958       7.81799580       7.70092063
54
Lattice="9.48 0.0 0.0 0.0 9.48 0.0 0.0 0.0 9.48" Properties=species:S:1:pos:R:3 energy=-379.9437893879813 free_energy=-379.9437893879813 pbc="T T T"
Ti      -0.51829353      -0.13799434      -0.07453164
Ni       1.39701552       1.29041170       1.43420799
Ti      -0.27333230      -0.10917844       3.25060059
Ti       1.85082305       1.24235115       4.96394007
Ti      -0.27400237       0.01711618       6.30385185
Ti       1.68044757       1.46599590       7.94671370
Ti       0.04650136       3.06435865       0.09548462
Ni       1.39635797       4.89128462       1.46835294
Ti       0.05458369       2.98374642       3.22120220
Ni       1.59114053       4.83427728       4.83286146
Ti      -0.01213818       3.13428940       6.21709243
Ti       1.38593862       4.89479864       7.93114984
Ni      -0.18041123       6.53055471      -0.09086715
Ti       1.62462265       7.88441590       1.49169762
Ni      -0.08020201       6.42700660       3.23790247
Hf       1.86017490       7.78274998       4.69809451
Hf      -0.58285187       6.34433897       5.89776499
Hf       1.74697249       7.85184082       7.83719920
Ni       3.40159009      -0.12301669      -0.14653042
Ni       4.72558700       1.44703190       1.27915075
Ni       3.39570459      -0.06213994       3.01802638
Ni       4.80423900       1.46271058       4.82697704
Ni       3.55107823       0.02511876       6.64426037
Ni       4.54323598       1.87175218       7.97576862
Ti       3.16441796       3.37333675       0.03465648
Ti       5.15474625       4.91314811       1.34023261
Hf       3.19402612       3.00360023       3.04052368
Ni       4.93049079       4.71714424       4.56348602
Ti       3.31802842       3.43372493       6.30382939
Ni       4.97532662       4.74047094       8.12154390
Ni       3.20238412       6.20774108       0.10966887
Ti       4.88095051       7.92146945       1.41254089
Ti       3.37966650       6.07710353       2.99623701
Ti       4.74018900       7.99193274       4.88966100
Ni       3.48863512       6.07353754       6.23223806
Ti       4.87862967       7.50526138       7.93165698
Ni       6.30562672       0.08794585      -0.09645404
Ni       7.99133802       1.57889152       1.64998423
Ti       6.25677995       0.12820769       3.01341519
Ni       7.67133620       1.58349363       4.79675788
Ti       6.18163398       0.33908872       6.74189188
Ni       8.06066147       1.82701631       7.76570176
Ti       6.37100206       2.84322141      -0.03028549
Ti       8.08010238       4.93236789       1.59897691
Ti       6.27132674       2.99890450       3.07893181
Ni       7.76753260       4.41524306       4.51489651
Ti       6.23579334       3.24269533       6.29970813
Ti       7.74200093       4.79663534       8.07068910
Ni       6.58552615       6.45738891       0.04365525
Ni       7.76071435       7.83438421       1.67296342
Ti       6.51547406       6.43306881       3.46618308
Ni       7.34248878       8.34806403       4.99514472
Ni       6.21049981       6.11237994       6.16451628
Ni       7.57616802       7.82660804       7.69011488
54
Lattice="9.48 0.0 0.0 0.0 9.48 0.0 0.0 0.0 9.48" Properties=species:S:1:pos:R:3 energy=-379.9437893879813 free_energy=-379.9437893879813 pbc="T T T"
Ni       0.13685041      -0.10473506      -0.01235693
Ti       1.54026628       1.61703580       1.69137511
Ti      -0.07265304      -0.35916237       3.42653507
Hf       1.50344910       1.67405626       5.05213977
Ti      -0.19953306      -0.81110501       6.47655334
Ni       1.64676738       1.34288391       7.78731657
Ni       0.23336348       3.14184888      -0.01330287
Ti       1.48934921       4.84797468       1.33018267
Ni       0.19543588       3.40663714       3.14747215
Ti       1.55330362       4.84272461       5.03269329
Ni      -0.20156619       3.49860637       6.30846699
Ni       1.47162248       4.84469155       7.80801405
Ti      -0.22102697       6.53736752      -0.62932952
Ti       1.49664840       7.82959834       1.35541399
Ni       0.15011139       6.21981856       3.08193958
Ni       1.52643042       7.59266130       4.87950899
Ni      -0.14860996       6.13252048       6.36227853
Ni       1.76431546       7.98215124       8.04621563
Ti       3.29880273       0.11526150      -0.03875938
Ni       4.37757182       1.88109705       1.67080679
Ti       3.20879333      -0.15190030       3.23179464
Ti       4.68876604       1.88993186       4.70085221
Ti       3.35697753      -0.54416378       6.24151124
Ti       4.84511068       1.57937329       7.61598752
Ti       3.00455802       3.16075683      -0.34014831
Ti       4.58424982       4.69565754       1.61058041
Ni       2.80667957       3.43613693       3.18820137
Hf       4.81185579       4.86171458       4.85249479
Ni       3.11613158       3.30850304       6.51348313
Ni       4.73434260       4.57244732       7.83488618
Ti       3.30460567       6.25194333      -0.42195516
Ti       4.88310932       7.71565487       1.40389517
Ti       3.00245523       6.41919551       3.15881161
Ni       4.96528944       7.69156559       4.40890862
Ni       3.10941953       6.28090119       6.50103972
Ni       4.97746932       8.10244537       8.13477179
Ni       6.11597370       0.40172257       0.28094814
Ti       8.12256207       1.67072723       1.59754772
Ti       6.21864521       0.11893842       3.06180385
Ti       7.89690792       1.86239418       4.67819645
Ti       6.38821850      -0.22270918       6.03616305
Hf       8.11960338       1.59547404       7.90898744
Ti       6.16057142       3.20748286       0.03909459
Ti       8.08601243       4.75194330       1.46331480
Ni       6.40871341       3.26212618       2.95785939
Ti       7.96048524       4.83403571       4.53620716
Ni       6.51905906       3.23260536       6.34378614
Ni       8.06091936       4.43308111       8.20834923
Ni       6.33020102       6.05428127       0.06094813
Ti       7.86284709       7.79665423       1.45860910
Ni       6.33551956       6.04939205       2.80887921
Ni       7.69305523       7.52299388       4.53278284
Hf       6.67895922       6.30323611       6.93507875
Ni       7.46931226       8.38142172       8.36660204
54
Lattice="9.48 0.0 0.0 0.0 9.48 0.0 0.0 0.0 9.48" Properties=species:S:1:pos:R:3 energy=-379.9437893879813 free_energy=-379.9437893879813 pbc="T T T"
Hf       0.19026053       0.26297336      -0.38784387
Ti       1.16042990       2.26306930       1.92917138
Ti      -0.63405539      -0.14260720       2.45704488
Ni       1.51664611       0.46312595       3.94039417
Ti       0.16314143       0.50084033       6.16564531
Ni       1.64629280       2.11321385       7.68128757
Ni       0.56233981       3.69344697      -0.11257570
Ni       1.51036731       4.90532704       1.82447787
Hf      -1.20228505       2.34700685       3.91773471
Ti       1.88072777       2.80106381       4.97303517
Ni      -0.30507887       2.99564408       6.41155848
Hf       1.76959680       5.00630721       7.25608869
Ti       0.20674447       6.50916366       0.29069019
Ti       2.00293539       8.28015144       1.86560156
Ni      -0.08377196       6.78053551       2.92721930
Hf       1.45790645       7.43035328       4.93379061
Ti      -0.71494308       5.16863654       5.04349871
Ni       2.08552369       7.96062081       7.68339910
Ti       3.39780761       0.64686578      -0.32597390
Ti       3.69808038       1.07528318       2.39672659
Ni       3.67158397      -0.86207380       3.90546133
Ti       5.08248775       1.85470622       4.83795453
Ti       3.14371785       0.35873562       6.18423806
Ni       5.36521763       1.04861531       7.45204865
Ti       3.15968446       3.45129312       0.20608359
Ni       5.09767225       5.05762888       1.73041811
Ni       3.48153051       3.50984644       2.92179028
Ti       4.18883910       4.66085830       5.09777820
Ni       3.81382739       2.86086920       6.91947507
Ni       4.60127377       5.18243002       7.74704228
Ti       3.26631588       6.27860127       0.31364618
Ni       4.64620372       8.14370020       1.39591584
Ni       3.20975442       6.24376677       3.07047993
Ni       5.47698863       8.78664750       5.56302312
Ni       3.87422131       7.01433615       5.83314597
Ti       4.83437194       8.04879007       7.94978378
Ti       6.47977399       0.24104918       0.35225216
Ni       8.12909979       2.28228988       0.82205966
Ni       6.14580731       0.10375946       3.15363535
Ni       7.22889569       0.98533297       5.77465221
Ni       7.32614784      -0.72276540       7.53480566
Ni       7.69224102       1.76475403       7.99264782
Ti       5.76915094       3.17498875      -0.63200941
Ti       8.14025007       4.69909750       1.78944090
Ti       5.85008353       2.66189971       2.06515576
Ni       6.44651358       4.46294929       3.93288134
Ni       6.40366285       3.51964118       6.36100380
Ti       8.10400092       4.48923920       8.10369142
Ti       6.42495119       6.25430350      -0.16784217
Ni       7.28611468       7.53816532       1.75279395
Ti       5.54179905       6.98020152       3.58084789
Ti       7.85586851       8.21441272       4.73683550
Ti       6.38455081       6.23500354       6.27602173
Ti       8.93700997       7.17380161       7.24530746
54
Lattice="9.48 0.0 0.0 0.0 9.48 0.0 0.0 0.0 9.48" Properties=species:S:1:pos:R:3 energy=-379.9437893879813 free_energy=-379.9437893879813 pbc="T T T"
Ni      -0.46192551      -0.21539381      -0.20446874
Ni       2.06659376       1.76662950       2.12911265
Ti      -0.02185438      -0.04116658       2.37524960
Ti       2.24340555       2.25349907       4.98692611
Ti       0.23103781      -0.01464314       6.71910088
Ni       1.98787564       1.80636631       7.55125786
Hf       0.12484309       2.35898776       0.10531784
Ti       1.67758397       4.84186233       1.54963870
Ti       0.19868725       3.10827112       3.23582504
Ni       1.43879865       4.83771137       4.50069467
Ti      -0.05936283       3.15546356       6.39968312
Ti       1.75900968       4.70467035       7.96154749
Ti       0.25174108       6.86283328      -0.03221238
Ni       1.93868637       7.58313367       1.88624327
Ti      -0.23400553       6.38148615       2.92783756
Ni       1.40746136       7.62303052       4.56450735
Ti      -0.06790188       6.16027435       6.21523385
Ni       1.71626471       7.49088404       7.29632062
Ti       2.20170700      -0.23177283      -0.28156986
Ni       4.82253643       1.57747612       2.09668258
Ti       3.23843441      -0.17799571       3.37244545
Ti       4.93614113       1.90248788       4.70356792
Ni       2.88981428      -0.09410567       5.93101813
Ti       4.55352829       1.03949852       7.56237885
Hf       3.57023996       2.83128070       0.20213133
Ni       4.23579945       5.23457803       1.36409669
Ni       3.39545824       3.62158531       3.10221875
Ni       4.94576388       4.54972371       4.81583914
Ni       3.70952825       3.42955372       6.75540525
Ti       4.86491057       5.19402437       8.30292241
Ni       2.85627063       6.53864318      -0.20224217
Hf       4.75428826       7.82465330       0.98986327
Ti       3.46381774       6.22346438       3.56671913
Ni       4.89939725       7.81685606       4.89047146
Ni       3.09648417       5.82914723       6.06261386
Ti       4.24048497       7.74108502       7.31332510
Ti       6.57219237       0.74900237       0.32243618
Ni       7.60812932       1.96874283       2.17103675
Ti       6.28454063      -0.21770647       3.15135099
Ti       7.91712531       1.50638450       4.76493873
Ni       6.33411687       0.03763725       6.08419757
Ni       7.76954617       1.43183643       7.70350403
Ni       6.39461508       3.21905779       0.01114533
Ni       8.33518725       4.41064976       1.49405212
Ti       5.90750499       3.83924500       2.47539742
Ti       7.64011382       4.61004219       4.54096017
Ti       6.31367916       3.19724803       6.72672150
Ti       7.99218291       4.81609524       8.27758486
Ni       6.54498196       5.80716024       0.58635872
Ni       7.61654711       7.87077467       1.40507747
Ni       6.11137099       6.40093584       3.10399894
Ti       7.72088779       7.77940872       4.85101688
Ni       6.31076173       6.00294766       6.27008527
Hf       7.12325124       7.81435173       8.01787110
54
Lattice="9.48 0.0 0.0 0.0 9.48 0.0 0.0 0.0 9.48" Properties=species:S:1:pos:R:3 energy=-379.9437893879813 free_energy=-379.9437893879813 pbc="T T T"
Ni      -0.03093173       0.02646856       0.22089731
Ti       1.62092255       1.68393576       1.49024415
Ni       0.20502368      -0.00645021       3.11337080
Ti       1.78145584       1.37824624       4.59162865
Ti      -0.17520156      -0.27489018       6.02000737
Ti       1.33975092       1.50924024       8.03686895
Ni      -0.68284857       3.33199827      -0.42579656
Ti       1.70340548       4.79248086       1.63222301
Ni       0.33020696       3.14241066       3.39953030
Ti       1.69652562       4.82922640       4.79653112
Ti      -0.18494158       2.94867752       6.15435737
Hf       1.48123687       4.71055125       8.07109850
Ti      -0.56941575       6.30299348       0.31138403
Ti       1.54549026       7.91759694       1.50496974
Ti      -0.01176089       6.48718162       3.23046756
Ti       2.14942767       7.89681231       4.63730913
Ni       0.10445875       6.55726870       5.96465792
Ti       1.15186370       7.84879449       8.03609432
Ni       2.86684064      -0.12352038      -0.05640426
Ti       5.20354912       1.26967932       1.78910982
Ni       3.16022736      -0.02715396       2.74049416
Ni       4.46014430       0.87951044       4.90294948
Ni       2.60294535      -0.05424341       6.67383204
Hf       4.92417884       0.63964196       7.89106185
Ti       3.75770617       3.05670915      -0.08938731
Ni       4.51045361       5.05269918       1.31956041
Ti       3.56744310       3.13435446       3.06263516
Hf       4.68399382       5.44140835       4.74403310
Ti       3.42583879       2.98635136       6.34988426
Ni       4.46773359       5.01113043       7.64110968
Ni       2.99992780       6.54032542      -0.08165573
Ti       4.91441209       7.95281554       0.92568559
Ni       3.43603730       6.69620556       2.72398602
Ni       4.43385268       7.99970435       5.79301167
Ni       2.77842612       6.50045013       6.66447999
Ni       4.88520508       7.41775692       8.05307746
Ni       6.78892959       0.62767267       0.16000175
Ti       8.22986643       1.98286568       1.62301931
Ti       5.45072612      -1.10717223       3.65405194
Hf       7.34998994       1.41192621       4.30523485
Ni       6.65049593      -0.37496968       6.14996776
Ni       8.05131806       1.28023306       7.66458674
Ni       6.36289236       3.27945705       0.29707010
Ni       8.45162767       4.46126369       1.89104599
Ni       6.21864702       3.53001009       2.77242094
Ti       7.83708595       4.61984385       4.56852587
Ti       6.43215465       3.46763788       7.21598018
Ni       8.36504836       5.13073031       7.47406009
Ni       6.38985254       5.79925857      -0.34381073
Ti       7.71574940       8.53952921       1.88968488
Ti       6.58799747       6.06161461       2.34840702
Ni       7.80888590       7.86189664       4.37855896
Ti       6.63535503       6.58429294       6.41676777
Ti       7.50807197       8.14543867       8.37455628
54
Lattice="9.48 0.0 0.0 0.0 9.48 0.0 0.0 0.0 9.48" Properties=species:S:1:pos:R:3 energy=-379.9437893879813 free_energy=-379.9437893879813 pbc="T T T"
Ti       0.36379639       0.09216196       0.17361217
Ni       1.73594614       1.37600660       1.74938967
Ni       0.15399383      -0.16929564       2.97787249
Ni       1.60909864       1.35222425       4.27617333
Ti       0.40486859      -0.18923294       6.23182219
Ti       1.69610866       1.86057844       7.63507028
Ti       0.18081434       3.21050706       0.14289800
Ni       1.86681715       5.26159385       0.77531917
Ni       0.01563904       3.17105588       2.79840419
Ti       1.04118621       3.54086217       5.26009008
Ni      -0.80586828       3.37055391       7.02129208
Ni       1.49103684       4.47757194       7.72367654
Ni      -0.19388113       6.69989981       0.71184019
Ni       1.76018687       7.92960406       1.60320005
Hf       0.47541096       6.01964512       3.26862976
Ni       2.02161323       8.09195424       4.43755613
Ti      -0.17726956       5.92246194       6.29284933
Hf       1.69458176       7.18988751       8.24773871
Ti       3.34304398      -0.05581498       0.22639313
Ti       4.77469838       1.90940705       1.53244135
Ni       3.39939219       0.05341310       2.96281769
Ni       4.06880750       2.21531229       4.04084647
Ti       3.47161435       0.52687471       5.82084118
Ni       4.47635977       1.76231221       8.15661035
Ni       2.81819848       2.91150191       0.19586519
Ni       4.85793166       4.53422810       1.44917613
Ti       2.53288779       3.63517108       2.61965627
Ti       4.85503158       4.63198806       4.12142949
Ni       3.40065525       3.26021726       6.21619802
Ti       3.95526861       4.69238379       8.36540517
Ni       3.70627650       6.81745429       0.35589540
Ni       5.05881506       8.29409383       1.81740584
Ti       3.47162346       6.48822698       2.71658928
Ti       4.74980108       7.72609575       4.70446395
Ti       2.81308942       5.82206964       5.68109711
Ni       4.46933809       7.77657085       7.65285549
Ni       6.05419729       0.01814739      -0.09244642
Ti       7.76725046       1.54390209       1.51353592
Ti       5.90478307       0.44265378       3.67834886
Ti       8.43825618       1.59820817       4.48486378
Ti       6.29502235      -0.22775600       6.67259463
Ni       8.10000709       1.24753028       8.17668984
Ti       6.56106176       3.38743959      -0.48111900
Ti       7.62486924       4.64072920       1.77808613
Ni       6.43815227       2.89698859       3.24139644
Ni       7.97588905       4.28004504       4.64885063
Hf       6.01944200       2.67827640       6.08187254
Ni       8.32187407       5.24150945       8.61561766
Ti       6.16603957       6.47385632       0.17696944
Ti       7.68792056       8.23092328       1.79123059
Ni       6.21484450       6.43706917       2.92021444
Ti       7.84403076       7.93694041       4.70680644
Hf       6.31049726       5.83041362       6.62776297
Ti       8.08722809       7.89147411       8.16874005
54
Lattice="9.48 0.0 0.0 0.0 9.48 0.0 0.0 0.0 9.48" Properties=species:S:1:pos:R:3 energy=-379.9437893879813 free_energy=-379.9437893879813 pbc="T T T"
Ti      -0.11297913      -0.14477102      -0.00538490
Ti       1.60156187       1.56226221       1.52778298
Ti      -0.06834056      -0.25792375       3.10134395
Hf       1.73167072       1.49494008       4.65650330
Ti      -0.32043478      -0.53120966       6.17931631
Hf       1.70423987       1.57218427       7.87578069
Ni      -0.13330591       2.94847047       0.00572233
Ni       1.17272003       4.55027394       1.30800813
Ti       0.03706903       3.35227158       3.18575146
Ni       1.71822949       4.75876166       4.69959108
Ti       0.04262921       3.53867740       6.11874049
Ti       1.47201646       4.70262461       8.12265088
Ti       0.34090960       6.66491902       0.32896982
Ni       1.77989149       8.04347985       1.86199613
Ti      -0.01637215       6.20079877       3.34914566
Ti       2.22960185       7.60205225       4.61434105
Ni       0.20985319       6.27914183       6.11365163
Ti       1.81457534       7.78997527       7.69539260
Ti       3.35329006      -0.31980131       0.17104998
Ti       4.62546925       1.89224552       1.60210161
Ni       3.51067727       0.05517419       3.19378797
Ni       4.38722995       2.31122873       4.26208051
Ti       4.12272720       0.43137583       6.07076962
Ni       4.41755042       1.90267638       8.23183106
Ni       3.06931764       3.39120918       0.25567742
Ni       4.70059757       4.62199595       1.70919514
Ni       2.78835521       3.37778426       2.80841648
Hf       4.51526268       5.15161127       4.63113636
Ni       3.10627615       3.26644376       6.33049448
Ti       4.62426154       4.51712667       8.05516146
Ni       3.13195386       6.24400708       0.01225381
Ti       4.53112487       7.32263180       2.10706718
Ni       2.65306620       5.84712210       2.69559634
Ni       4.96524293       7.78323628       4.70918675
Ni       2.94414138       5.92405871       6.55752338
Hf       4.97605766       7.41321154       7.61772598
Ti       6.20174450       0.29263920      -0.38576491
Ti       7.85159617       1.56089471       1.59866826
Ti       6.13760783       0.37482856       3.72037007
Ni       8.19457370       1.61484872       4.78932645
Ni       6.62327020      -0.04383081       6.34761264
Ti       7.98175128       1.80155759       7.73738644
Ni       6.37011339       3.18016165       0.06002343
Ti       7.93677252       4.78212009       1.29909235
Ti       6.50322018       3.32407035       3.20926623
Ni       7.76311105       4.72925912       4.87469376
Ti       6.04548740       2.76493615       6.14543950
Ti       7.80804937       4.99946630       7.90829578
Ni       5.99057140       6.05302251       0.22949558
Ti       7.43352846       7.84974142       1.57929394
Ni       6.49970854       6.01309269       3.06771886
Ni       7.68431683       7.88721675       4.28753937
Ni       6.94436943       6.60594641       6.18142150
Ni       7.77234867       7.70765886       8.26319841
54
Lattice="9.48 0.0 0.0 0.0 9.48 0.0 0.0 0.0 9.48" Properties=species:S:1:pos:R:3 energy=-379.9437893879813 free_energy=-379.9437893879813 pbc="T T T"
Ti       0.04675873       0.25318264      -0.10323000
Ni       1.60723329       1.69870953       1.73182800
Ti      -0.13385277       0.02778530       3.01465829
Ni       1.82039584       1.47237473       4.54648395
Hf      -0.05630283       0.25157874       6.18761043
Ni       1.54068210       1.89573875       7.97568038
Ni      -0.06832907       3.28600160       0.22712991
Ti       1.45884173       4.57898465       1.72318202
Ti      -0.32406587       2.85595286       3.39020413
Ti       1.29234361       4.79580582       4.71461371
Ni       0.15250193       2.99571045       6.22526318
Ti       1.54897801       4.71061040       7.92567284
Ti      -0.18202551       6.18220706       0.01436075
Ti       1.57033938       7.81839745       1.48992169
Ni      -0.00778653       6.41081415       2.84561715
Ti       1.56294185       7.72346187       4.64857889
Ni       0.05411736       6.40608306       6.52398669
Ti       1.66625332       7.72211156       7.87430839
Hf       3.30948220       0.29063045      -0.03983499
Ni       4.91267802       1.71094402       1.57676562
Ti       3.38289848      -0.03406766       3.08570061
Ni       4.75025913       1.53176478       4.71394626
Ti       3.40333510      -0.05346349       6.21891387
Ni       5.04044229       1.61601443       7.84847075
Ti       3.43396382       3.23912342       0.05422160
Ni       4.92791512       4.59497771       1.67764685
Ti       3.43730155       3.08779529       3.11561081
Ti       5.55372830       4.78768188       4.43784564
Hf       3.39586958       3.11399829       6.27985570
Ni       4.50586038       5.00135841       8.14656844
Ni       3.04795820       6.10444641       0.27818386
Ni       4.78970242       7.96367606       1.28718039
Ti       3.46127081       6.27442135       3.02795339
Ni       4.87629810       7.67098431       4.77294774
Ti       3.44813815       6.15790059       6.14984692
Ti       4.84229848       7.60561620       8.09145032
Ni       6.25115191       0.02230865      -0.27135234
Ti       7.54323729       1.70092656       1.14011274
Ti       6.24852996       0.09061703       3.23811084
Ti       7.21068652       2.14088176       5.39728261
Ni       6.23238652      -0.12506773       6.35882853