54
Lattice="9.333917807238214 0.08274485789576995 0.11373190611274718 0.0827448578941568 8.962277507142515 0.026323941398468456 0.11373190611286219 0.026323941399463653 9.127518311324893" Properties=species:S:1:pos:R:3 n_minim_iter=0 stress="-9.358759312644471e-05 -8.889749768424596e-06 3.196482547062813e-05 -8.889749768424596e-06 -5.1965078888052315e-05 -3.800955520761471e-06 3.196482547062813e-05 -3.800955520761471e-06 -1.8244897436697113e-05" pbc="T T T"
Ti      -0.03324324       0.29581238       0.28137304
Ni       1.59639083       1.46389118       1.67195332
Ni      -0.07356025       0.13094803       3.07122456
Ti       1.91495299       1.74344947       4.18051370
Ti       0.06411749      -0.01828508       5.60819708
Ti       1.72389528       1.37093600       7.37003238
Hf      -0.25657011       3.17613170      -0.12241627
Hf       2.02578079       4.40557585       1.67425871
Ti      -0.25078637       2.89765087       2.94529860
Ti       1.40410390       4.66442463       4.65873793
Ni       0.14764209       2.73436089       5.82759541
Hf       1.84800430       5.37011614       7.58449248
Ni       0.03472783       5.89101935       0.39700596
Ti       1.43391597       7.46975048       1.80053985
Ni       0.01193029       5.79697199       2.98714854
Ni       1.55378710       7.23571075       4.33788570
Ni      -0.28073662       6.47002973       5.45863976
Ni       1.80308850       7.78152181       8.24217359
Ti       3.29737493       0.03535027       0.37435230
Ti       4.04781916       2.11163403       1.93421574
Ni       3.26247982      -0.20494958       2.96837172
Ti       4.59696978       1.48430720       4.58380825
Ti       2.90049077      -0.50077382       5.84531598
Hf       4.81653607       1.50379785       7.37304002
Ni       2.83908627       2.82933303      -0.22560198
Ni       4.76618398       4.62882208       1.47482529
Ni       3.65413605       3.80742506       3.71870083
Ni       5.35741850       3.71206631       5.41830676
Ni       2.96361681       3.22037433       6.11719653
Ti       4.59070021       4.44196968       7.95620772
Ni       3.34831122       6.38624596       0.48903607
Ti       5.27333774       7.18679747       1.87030342
Ni       3.28487597       6.16755489       3.04357361
Ni       4.91956127       7.73426724       4.39499991
Ti       3.86280008       5.71762380       5.42889181
Ti       4.55762541       7.35453904       7.72654727
Ti       6.32202157      -0.05002615       0.06382861
Ni       7.64572943       1.45415087       1.81096198
Ni       5.94653023       0.40583697       2.74681033
Ti       7.42752549       1.55981702       4.62853979
Ti       6.47096488      -0.45712233       6.09233093
Ni       7.96051780       1.15870047       7.48540721
Ti       6.19120784       2.83024590       0.49202093
Ti       7.35453451       5.07676600       1.95679087
Ni       6.15562604       3.10454163       3.12648990
Ti       7.70765370       4.55300360       4.71909541
Ti       7.06447007       3.29932663       7.00678138
Ni       8.69222186       5.04091814       7.17790480
Ti       6.63587621       5.71407431      -0.35948987
Ni       7.92706066       7.57428250       1.49810953
Ni       5.61348197       5.49127241       3.66746471
Ti       7.40946321       7.40829842       3.92441306
Ni       6.32644941       6.01131430       6.15560847
Ti       8.57577816       7.43349022       7.86060497
54
Lattice="9.076635798230264 -0.04663937573260568 -0.056988746693191705 -0.046639375732419344 8.950185016590963 -0.2272904929062447 -0.05698874669307285 -0.22729049290647899 9.347467194096119" Properties=species:S:1:pos:R:3 n_minim_iter=0 stress="-9.358759312644471e-05 -8.889749768424596e-06 3.196482547062813e-05 -8.889749768424596e-06 -5.1965078888052315e-05 -3.800955520761471e-06 3.196482547062813e-05 -3.800955520761471e-06 -1.8244897436697113e-05" pbc="T T T"
Ti      -0.09920702       0.01376762       0.09487960
Ni       1.70703988       1.44244102       1.26797353
Ni       0.12171877       0.28307366       2.73528388
Ni       1.13527227       1.01481002       4.82875344
Ni       0.06664279      -0.48459143       6.26290175
Ti       1.37029352       1.26118185       7.84041735
Ni      -0.11846703       2.70670206       0.12380624
Ti       1.84420172       3.89901852       1.52811124
Ni      -0.13789808       2.71520679       3.25451111
Ti       1.28512809       4.61606047       4.20615975
Ti      -0.13619726       2.88561527       5.88518170
Ti       1.10553656       4.35942785       8.21887610
Ni      -0.45766496       6.48092141      -0.63686542
Ti       1.27494443       6.89439707       1.03213369
Hf      -0.14013700       7.25415922       3.56291597
Ni       1.78268906       7.18435907       4.79789287
Ti      -0.33937800       5.90233392       6.22405810
Ti       1.64731720       7.14425564       7.49459347
Ti       3.05728023      -0.17851310       0.11461929
Ti       4.48283923       1.57917366       1.83458768
Ti       2.56080452      -0.09953782       3.12069065
Ni       4.48787508       1.18484555       4.36041739
Ti       3.03389659       0.01051085       6.10755579
Ti       4.57931753       1.15833869       7.91977415
Ni       3.17852670       2.82506881      -0.24041827
Hf       4.79818118       4.34473594       1.34825917
Ni       2.53778107       2.43035004       3.42573155
Ti       4.46966115       4.15402284       4.05063422
Hf       2.95910568       2.94489854       6.09295074
Ni       4.76301397       4.01453492       7.86510003
Ni       3.29718125       6.09324477      -0.11630581
Ni       4.30111040       7.54205101       1.55428328
Ti       2.95531938       6.06924113       2.82026185
Ti       4.49928362       7.47742975       4.50559420
Ni       3.11955354       5.70269333       5.90206318
Ni       4.44721154       7.38242045       7.31259522
Ti       6.03173133      -0.12408481       0.23814027
Ni       7.45280430       1.35914264       1.52191147
Ni       6.13066454      -0.08587642       3.02153333
Ni       7.77928818       0.85074591       4.68729241
Ni       5.76195059       0.09224831       6.14574259
Ti       7.63503698       0.96972256       7.44319597
Ti       6.42609318       2.81655507      -0.21790483
Hf       8.15401645       4.75783845       1.37313488
Ni       6.39322726       2.43844946       3.38616062
Ti       7.40157954       4.56500059       4.14479850
Ti       6.03945817       2.62998357       5.93764284
Ni       7.55640867       4.13034459       7.66669094
Ti       6.08204048       6.15112334      -0.36435079
Ni       7.62823356       7.58365431       1.33222942
Ti       6.04350496       6.42120773       2.71831890
Ni       7.06394143       7.41425398       4.78215800
Ti       5.80261400       5.53671157       6.14560607
Ni       7.07030148       7.50007060       7.25944970
54
Lattice="9.476913918884039 -0.047592161542398384 -0.0083146858295237 -0.04759216154237159 9.104027032476349 0.19421639919047784 -0.008314685829516836 0.1942163991905646 8.843609724118648" Properties=species:S:1:pos:R:3 n_minim_iter=0 stress="-9.358759312644471e-05 -8.889749768424596e-06 3.196482547062813e-05 -8.889749768424596e-06 -5.1965078888052315e-05 -3.800955520761471e-06 3.196482547062813e-05 -3.800955520761471e-06 -1.8244897436697113e-05" pbc="T T T"
Ni      -0.04344500      -0.26216589      -0.07172882
Ni       1.75912295       1.11879892       0.96465603
Ni       0.10835972      -0.18188092       2.81358297
Ni       1.40929527       1.21731959       4.70465139
Ni      -0.29854287      -0.29203659       6.06400854
Ti       1.47104144       1.28023855       7.27339291
Hf       0.02545693       3.20792246       0.32927182
Ti       1.53649584       5.07482943       1.98182747
Ni       0.45741331       2.16818739       2.65809937
Ni       1.35995452       5.12131481       4.64123762
Ti       0.27832131       3.30297976       5.98803923
Ni       1.11632850       5.26471454       7.32534900
Ni      -0.00499921       6.25190962       0.29354518
Ti       1.56445886       7.66307592       1.56327092
Ni      -0.21256805       6.43761414       3.06941856
Ti       1.36614052       7.63407250       4.69537618
Ti      -0.76160330       6.15488661       5.64532177
Ni       1.52679082       7.74088944       7.56241300
Ti       3.57781201      -0.09377800      -0.07795598
Ni       4.41723876       1.77506493       1.47383617
Ti       2.96954490       0.20324796       2.90914738
Hf       4.64128585       1.86081904       4.42046581
Ti       3.33842126      -0.24908737       5.95975794
Ti       4.83427569       1.93459788       7.29426574
Hf       2.99467872       3.31843404      -0.14412921
Ti       4.53978229       4.48830908       1.99833290
Ti       2.46943965       3.21179654       3.37763122
Ni       4.65504725       4.65209679       4.45642019
Ni       2.73365079       3.39618071       5.87975713
Ni       5.13574558       4.80313448       7.61749329
Ti       3.18512396       6.11687647      -0.04915406
Ti       4.69405873       7.39415744       1.80702643
Ni       3.18417281       6.28419745       3.37648695
Ti       4.88097231       7.64969956       4.47361276
Ti       3.29305155       5.91303262       6.15553007
Ni       4.92215152       7.55888946       7.60622919
Ni       6.17032860       0.09179184       0.02954731
Ni       8.03788758       1.20035176       1.44806051
Ti       6.12773730       0.39525333       2.61191825
Ti       8.23762613       1.33919222       4.30077576
Ti       6.37203289       0.01069550       5.91557620
Ti       7.91889833       1.41894741       7.48218089
Ti       6.41423608       3.04180081       0.35627986
Ni       7.86620475       4.84826486       1.46753921
Ni       6.46615786       3.05289699       2.93277755
Ti       8.83475331       4.01192970       3.47479081
Hf       6.77358676       3.61898363       5.72427364
Ni       7.82339276       4.94057327       7.72683400
Ni       6.00345156       5.91146943       0.54043958
Ti       7.78004239       7.65500069       1.62139145
Ti       6.64417825       5.75851704       3.43473317
Ni       7.65502305       7.96655255       4.25919491
Ni       6.20185295       6.28659318       5.92771255
Ti       7.52079337       7.47050005       7.87349463
54
Lattice="8.850886203238865 -0.03218477324742964 0.1094961036432006 -0.03218477324738991 9.5544980738494 -0.015766804664065364 0.10949610364316519 -0.01576680466423369 9.060082677176082" Properties=species:S:1:pos:R:3 n_minim_iter=0 stress="-9.358759312644471e-05 -8.889749768424596e-06 3.196482547062813e-05 -8.889749768424596e-06 -5.1965078888052315e-05 -3.800955520761471e-06 3.196482547062813e-05 -3.800955520761471e-06 -1.8244897436697113e-05" pbc="T T T"
Ti      -0.12832706      -0.28356747      -0.14565493
Ti       1.43391744       1.11257363       1.56180200
Hf      -0.12580831      -0.99296223       3.04504842
Ti       1.43708315       1.56438371       4.34046790
Ti       0.22284018      -0.11381444       6.05459725
Ni       1.28416514       1.75260926       7.43496696
Ti      -0.29397935       3.37788378       0.34549776
Ni       2.05941203       5.59446755       1.75865636
Ni       0.87795653       3.31842750       2.56818966
Ni       1.86667584       4.78546887       4.75928149
Ti      -0.09963834       3.35116460       5.58852319
Ti       1.42336604       4.90661163       7.24115646
Ti       0.12838712       6.45881647       0.29654814
Ni       1.76680481       8.20821457       1.03921850
Ti      -0.02236190       5.58072676       3.14122429
Ti       1.88235469       7.43425092       4.69493061
Ti      -0.35253120       6.55315750       5.71910461
Ti       1.75263116       7.74398542       7.41885786
Ti       3.00691012       0.32938040      -0.60741291
Ti       4.52071679       1.43893463       1.61727406
Ti       3.11433098      -0.33625882       3.32362900
Ni       4.51932084       1.45862003       4.32315431
Ni       2.93256464       0.06530809       5.95242501
Ni       4.73965721       2.01008512       8.01987459
Hf       2.66248487       3.35881203       0.16907976
Ti       4.58614604       5.09665229       1.44051724
Ti       3.31125056       3.47641059       3.21454824
Ni       4.63461493       4.75504834       4.84375190
Ti       3.12762270       2.78287574       6.08133260
Ti       4.59593827       4.69127322       7.52688515
Ni       2.97237601       6.22192743      -0.33606581
Hf       4.32497654       7.88083583       1.26231517
Ni       3.58899090       6.30046444       3.45806750
Ni       4.44932925       8.00881567       4.96805104
Ni       3.27082970       6.21526327       6.17647097
Ni       4.27228844       7.99837922       7.44913630
Ni       5.76834574      -0.17849738      -0.34857260
Ti       7.11642192       1.01027972       1.52604754
Ni       5.80735212      -0.43894579       3.20213392
Ti       7.17516624       1.10094842       4.62480285
Ni       5.38131692       0.35037358       6.37053910
Ti       7.28354606       1.61066517       7.65532570
Ni       5.98966135       3.28656517       0.22575605
Ni       7.03519120       5.33839953       1.32808990
Hf       6.50769444       3.47096473       3.04762899
Ni       7.06147544       4.82478702       5.12307787
Ti       5.80261876       2.93787881       5.99644705
Ti       7.31023956       4.89045895       7.73202761
Ni       5.64270414       6.53018395      -0.32943989
Ni       6.98458587       7.84389015       1.23414886
Ti       6.09657951       6.61732854       3.62050847
Ni       6.87952561       8.34475023       5.29554462
Ni       5.79155793       6.47265377       6.28670699
Ni       7.50716494       7.77938603       7.62454575
54
Lattice="9.278706968887155 0.01668625854192647 -0.06161289053175477 0.01668625854196638 8.989797713993545 -0.2094298452706679 -0.061612890531814186 -0.20942984527122085 9.140448873248495" Properties=species:S:1:pos:R:3 n_minim_iter=0 stress="-9.358759312644471e-05 -8.889749768424596e-06 3.196482547062813e-05 -8.889749768424596e-06 -5.1965078888052315e-05 -3.800955520761471e-06 3.196482547062813e-05 -3.800955520761471e-06 -1.8244897436697113e-05" pbc="T T T"
Ni      -0.38439006       0.23113893       0.06713546
Ni       1.57642044       1.49175299       0.98874207
Ti       0.18060333       0.03451509       2.95299127
Ni       1.69588926       1.22862844       4.57884885
Ni      -0.16114154       0.26314315       5.93464804
Ti       1.99325637       1.17925751       7.38779798
Ti      -0.31394034       2.81128992      -0.16888994
Ti       1.80452810       4.14494619       1.56169809
Ti       0.27707689       2.73127411       2.89898364
Ni       1.51364044       4.70563653       4.18878574
Hf      -0.05167205       2.93887049       5.82479603
Hf       1.99188859       3.89669698       7.92965359
Hf       0.05721784       5.99244108       0.07832081
Ni       1.39986069       7.85731644       0.97857338
Ti      -0.10459303       6.08138745       2.80923917
Ti       1.64776517       7.74610206       4.68318859
Ni       0.15104929       5.68840759       6.05771796
Ti       1.18620059       7.64127244       7.45285013
Ni       3.32597221      -0.09042084       0.01037509
Ni       5.28511246       0.93117265       2.22763515
Ti       3.02823326       0.11139420       2.55967264
Hf       4.42608341       0.95935310       4.82862739
Ni       3.44518481      -0.76822818       6.74758781
Ni       4.52602698       1.63929769       7.34500517
Ti       3.86955399       2.36079150       0.55655652
Ni       4.40362605       4.73737141       1.37246267
Ni       3.21156712       2.67288504       2.95773869
Ni       4.19961157       4.81541140       3.93601866
Ti       3.06555288       3.17901911       5.46997540
Ti       4.78751499       4.18132265       7.63051220
Ti       3.16750798       6.39726809      -0.16428209
Ni       4.79257087       7.47289279       1.32615623
Ti       2.71840702       6.36151306       2.53239992
Ni       4.09514783       7.32949557       4.29189792
Ti       3.10832512       5.86713863       6.04378263
Ni       5.02776088       6.86672427       7.74350967
Ti       5.80823819       0.30805375      -0.13135064
Ni       7.57801257       1.62235614       1.57902395
Ni       6.00614897      -0.81055837       3.72839394
Ti       7.33644518       1.18090759       4.09602139
Ni       5.81842852      -0.56448172       6.28128851
Ti       7.08115202       1.41079931       7.11203308
Ni       6.28973870       3.02469128       0.03771416
Ni       7.97056003       4.20459564       1.58845218
Ti       5.88260088       3.31017551       2.65992014
Ni       7.86506490       4.45810138       4.07442604
Ti       6.01090736       3.29548809       5.44437622
Ni       7.45087802       4.49575113       7.35772732
Ti       6.40061165       5.70229868       0.31278533
Ti       7.36936953       7.98940089       1.50431905
Ni       6.36462900       5.85943846       2.83945205
Ti       8.02461972       7.33278012       4.58428751
Ti       5.94986356       5.98853429       5.44511528
Ti       7.60936938       7.43690618       7.42694007
54
Lattice="8.378934375305743 0.09965086202622622 0.15516015669932873 0.09965086202623437 10.223391063192485 0.23428651782590432 0.1551601566993271 0.23428651782606186 8.969650204525864" Properties=species:S:1:pos:R:3 n_minim_iter=0 stress="-9.358759312644471e-05 -8.889749768424596e-06 3.196482547062813e-05 -8.889749768424596e-06 -5.1965078888052315e-05 -3.800955520761471e-06 3.196482547062813e-05 -3.800955520761471e-06 -1.8244897436697113e-05" pbc="T T T"
Ti      -0.00598081      -0.34305084      -0.26759442
Ni       1.43857913       1.29696859       1.14141549
Ti      -0.37463496       0.09486088       2.85313863
Ti       1.54130618       2.42853275       5.14395886
Ti       0.09495965       0.09672375       5.77755440
Ni       1.73519456       2.05385691       7.58032881
Ni       0.37362872       3.42237191       0.21170616
Ti       1.37344177       5.34934486       1.53514788
Ti       0.38377966       2.92291481       2.73506383
Ni       1.76522152       4.82033462       4.33233623
Ni       0.74216517       4.20196988       6.53093118
Ni       1.73757918       5.52485320       8.09853417
Ni       0.09653683       7.12221347       0.04845910
Ti       1.48629225       8.60222200       1.82703776
Ti       0.07209512       6.87261032       3.57995408
Ti       1.63249492       8.74623650       4.63149870
Ti       0.17445607       7.00806499       6.46431648
Ni       1.78780964       8.74534743       7.30540162
Ti       2.85526054      -0.11708341      -0.50956873
Ni       3.89253181       1.38497973       1.21518005
Ti       2.55470486       0.71464358       3.35110115
Ni       4.08895188       2.28293574       4.90359875
Ni       2.84978571       0.39846518       5.97665563
Ni       4.22406959       2.03020095       7.58618363
Ni       2.77947293       3.38302483       0.10026404
Ni       4.18672288       5.26260169       1.63153075
Ti       2.96881238       3.28415211       2.59630981
Ti       4.65041332       4.64605606       4.33554492
Ni       3.08861994       3.87227210       6.54817619
Ni       4.29881051       5.46900710       8.06160412
Ti       2.89974259       7.11456742       0.07673575
Hf       4.32726935       8.95082484       2.04881576
Ti       3.06059034       6.63258777       3.09513634
Ti       4.35689169       8.78595055       4.89146963
Hf       2.87496060       6.43911594       6.02561430
Ni       4.48583479       8.61163010       7.45017893
Ti       5.66094505       0.09404006      -0.13562321
Ni       7.22442012       1.89068442       1.23558146
Ni       5.19312273       0.61754625       3.42972341
Ti       6.74671266       2.30991166       4.54635073
Ti       5.44950462       0.43834315       6.10626035
Hf       7.43563068       2.40374315       7.41524715
Ti       5.21162179       3.27766013       0.21867037
Hf       6.84592990       4.96695176       2.08707728
Ni       5.37258396       2.88430047       2.66170597
Ti       7.51256098       4.77411974       5.05955146
Ni       5.50692977       3.90206307       6.55058117
Ti       7.35419393       5.28151688       8.11365438
Ti       5.73388041       7.07197686       0.15443397
Ni       7.10617468       8.43200441       1.85707381
Ni       5.56376091       6.90005286       3.54348468
Ni       7.05167872       8.68479910       5.07906077
Ti       5.80434948       6.66180003       6.26254413
Ni       6.98690067       8.83606764       7.48058194
54
Lattice="8.980734345979535 -0.15485453238286762 0.09733307578422568 -0.15485453238295732 8.946715854926579 -0.05984323936325635 0.09733307578440176 -0.059843239363533335 9.52123259639857" Properties=species:S:1:pos:R:3 n_minim_iter=0 stress="-9.358759312644471e-05 -8.889749768424596e-06 3.196482547062813e-05 -8.889749768424596e-06 -5.1965078888052315e-05 -3.800955520761471e-06 3.196482547062813e-05 -3.800955520761471e-06 -1.8244897436697113e-05" pbc="T T T"
Ni      -0.17724263       0.18675105      -0.31155676
Ni       1.48620989       1.40350116       1.27613530
Ti       0.51967167       0.31908791       3.36210009
Ti       1.95658462       1.71085002       5.20037291
Hf      -0.12645277       0.35008588       6.43910155
Ni       1.61087842       1.47849618       7.85717385
Ti      -0.05070219       2.80108970      -0.21128072
Ti       1.37423109       3.96821663       1.96808064
Ti      -0.39726361       3.00222043       3.91763543
Ni       1.74918290       4.14194992       4.73533688
Ni      -0.06892774       2.86298892       6.48577153
Ti       1.81657395       4.15858957       7.56049477
Ti       0.03258267       5.61751675      -0.05946272
Ti       1.54455778       7.83071727       1.21206495
Ni       0.09329516       5.72241819       3.19055779
Ni       1.72136554       7.85603873       5.27987325
Hf      -0.20638632       5.33407511       5.95100097
Ti       1.47632622       7.32340747       7.85988509
Ni       3.19574333       0.21023641      -0.31600753
Ni       4.14838361       1.42135818       1.49767484
Ni       3.10059116      -0.11680875       3.37217262
Ni       4.57604890       1.40824992       4.74841402
Ti       3.47929796       0.32244725       6.72767672
Ni       4.93347601       1.79875476       8.00712330
Ti       3.01402607       2.73547479      -0.17210413
Ti       4.28261792       4.02428594       1.93405151
Ni       2.82423034       2.45959351       3.10162829
Ti       4.29399338       4.11783600       4.60448250
Ni       3.56156815       2.94501623       6.54021327
Ti       4.79278587       4.42255457       7.97310331
Ti       2.85655626       5.61273666       0.26703174
Ni       4.06233086       7.57630303       1.23469962
Ti       2.63936784       6.19213825       3.32657257
Ti       4.43169256       7.59985108       5.05378291
Ni       3.12764531       5.74574483       6.18099151
Ti       4.30918746       7.12177072       8.02485773
Ti       5.84194785       0.18109677       0.04484380
Ni       7.75485682       1.39443508       1.84147406
Ti       5.66836659       0.13438955       2.86791506
Ni       7.20610377       0.90656646       4.61430399
Ni       6.04052324       0.09093255       6.54765055
Ni       7.31442840       1.56629421       8.05725808
Ti       6.02971683       2.80005780       0.40704337
Ti       7.40367705       4.31923091       1.89823107
Ni       5.97152528       2.61519743       3.20776756
Ni       6.76928128       4.62575685       4.25059857
Ti       6.35552193       2.75941307       6.05744712
Ni       7.27751689       4.16628067       8.06209536
Ni       5.85244620       5.71454652       0.40068435
Ti       7.61849750       7.57027766       1.53017677
Ti       5.35281670       6.20267770       2.81150285
Hf       7.31677211       7.24683581       4.48867205
Ni       5.84957499       5.58050281       6.12948989
Hf       7.16468894       6.93037073       8.03445062
54
Lattice="8.76576237934981 0.025969693005801073 0.18652224365827888 0.025969693005772274 9.514091739643915 -0.07383130695361921 0.18652224365819645 -0.07383130695381851 9.178633436844631" Properties=species:S:1:pos:R:3 n_minim_iter=0 stress="-9.358759312644471e-05 -8.889749768424596e-06 3.196482547062813e-05 -8.889749768424596e-06 -5.1965078888052315e-05 -3.800955520761471e-06 3.196482547062813e-05 -3.800955520761471e-06 -1.8244897436697113e-05" pbc="T T T"
Ti       0.18607400       0.06791051       0.02952615
Ti       1.60693341       1.64395273       1.81564495
Ni      -0.23199624       0.42827896       3.06516056
Ni       1.47085592       1.69603362       4.41814305
Hf      -0.20770368       0.05137960       6.08614733
Ti       1.68034713       1.63181047       7.91831539
Ti      -0.21006390       3.43066921       0.51767921
Ni       1.79905027       4.38263408       1.59667446
Ni      -0.07484879       3.10945786       3.02451810
Ti       1.93990837       4.19049248       4.18433572
Ti       0.25572775       3.09240859       6.14764485
Ti       2.02878380       4.75150756       7.94104595
Ni       0.08022878       6.10741715       0.06474978
Ti       1.44451789       8.19277623       2.19910036
Ti      -0.00785565       5.69069910       2.61427763
Ni       1.81043245       7.99563882       4.71331701
Hf       0.39873331       6.12033862       5.82366257
Ti       1.81351941       7.75568453       7.59944581
Ti       3.10904407      -0.29441185       0.28215110
Ti       4.68448285       1.16951733       1.46807796
Ni       3.13543433       0.29114574       3.30618810
Ni       4.65159400       1.85443000       4.56534389
Ti       3.08683087       0.35092201       5.82122639
Ni       4.31725057       1.14445194       7.84956058
Ti       3.25910430       3.01638347      -0.05146668
Ti       4.21423108       4.82692879       1.31032791
Ni       3.49419870       2.91443696       2.75525279
Ti       4.47133947       4.42844518       4.91522222
Ni       3.10250635       2.88072339       6.32789499
Ni       4.66987602       4.74855678       7.56017233
Ni       2.56124983       6.56087725       0.52960775
Ni       4.22580150       8.00717946       1.99669103
Ni       2.86733275       6.29269959       3.17291502
Ni       4.31488984       8.01785067       4.64265149
Ni       3.11493771       6.30012757       5.95298319
Ni       4.27527525       8.20849426       7.20170596
Ti       6.13704926       0.01941939      -0.74597670
Ni       7.27082019       1.29400841       1.50583179
Ti       5.85021585       0.05992354       3.49655363
Ni       7.19234605       1.88591249       4.76329542
Ni       5.74584731       0.09335515       5.95729983
Ni       7.78680847       1.98414249       8.13743684
Ni       5.75056830       3.03470765       0.10222193
Ni       6.75021042       5.10695602       1.22389540
Ti       6.14549395       3.14229002       2.78632892
Ti       7.15370997       4.53616100       4.96177054
Ti       5.83476457       2.58760451       6.69489064
Ti       7.27348281       4.82649496       7.92787916
Ti       5.12417843       6.89430539      -0.15639762
Hf       7.24086377       7.99372093       1.44275004
Hf       5.64208843       6.30814758       3.25034483
Ti       7.88521039       7.81339572       4.25057315
Ti       6.02572865       6.89979896       6.20130907
Ni       7.86331160       7.45198492       7.88889669
54
Lattice="9.012561885262386 -0.08462708460385691 0.06124077651019081 -0.0846270846041412 9.449171131234365 -0.11041458536087187 0.06124077651048169 -0.11041458536102841 8.918357150982926" Properties=species:S:1:pos:R:3 n_minim_iter=0 stress="-9.358759312644471e-05 -8.889749768424596e-06 3.196482547062813e-05 -8.889749768424596e-06 -5.1965078888052315e-05 -3.800955520761471e-06 3.196482547062813e-05 -3.800955520761471e-06 -1.8244897436697113e-05" pbc="T T T"
Ni       0.14507258      -0.00747870       0.17847009
Ni       1.45428546       1.60023752       1.54226104
Ti       0.20664709      -0.22601385       2.94779744
Ti       1.57269047       1.69158369       4.37833334
Ni       0.01256386      -0.29564813       5.69046929
Ti       1.38822568       1.45077416       7.35938576
Ni      -0.10177122       3.26492455      -0.09241788
Ni       1.69986400       4.81141125       1.20780794
Ti       0.17637069       3.39224672       2.60608496
Hf       1.75289734       5.03439981       4.55249813
Ni       0.27698570       3.29669874       6.05126891
Ti       1.62850223       4.68388133       7.61640799
Ni      -0.15269491       6.11215708      -0.24136538
Ti       1.56196704       7.38370699       1.20191249
Ti       0.00022275       6.26390019       2.89515874
Ni       1.72020628       7.68176266       4.42074789
Ti      -0.27719861       6.43510131       5.94903118
Ti       1.47906041       7.71304352       7.20208759
Ti       2.79436078      -0.07065487       0.21947299
Ti       4.22746112       1.65959777       1.57628760
Ni       2.67503147      -0.00894132       2.92995620
Ti       4.52027895       1.18213931       4.33402324
Ni       2.83385516       0.02668482       5.72319481
Hf       4.47197418       1.44192860       7.41545178
Ni       2.74610347       2.94140884      -0.07152317
Ni       4.22132826       4.36462393       1.23695467
Ni       3.06851570       3.28026266       3.11877295
Ni       4.61162443       4.93127617       4.48020084
Ti       3.22863774       3.21017140       5.82219473
Ni       4.36428693       4.36564854       7.69790757
Ti       3.66225897       6.48273772      -0.01431289
Ti       4.37025325       8.18175198       2.33562534
Ni       3.10461515       6.11434280       2.71650546
Ni       4.35370144       7.41875342       4.64454302
Ni       3.16457638       5.98509157       6.22731968
Ni       4.04339419       8.08086892       7.06950002
Hf       5.75658826      -0.60684487       0.09345262
Ti       7.62402506       1.53684245       1.44990362
Ni       6.36496411       0.10745459       2.86936044
Hf       7.59510058       1.62288464       4.64195281
Ti       6.14192191      -0.52197829       5.98343599
Ti       7.69397877       1.25154657       7.54150798
Ti       6.19272081       3.40406764       0.01707209
Ni       7.53509871       4.75500536       1.55214975
Ti       5.81641510       3.26680231       2.95734900
Ti       7.35069407       4.65269665       4.51525957