8
Lattice="2.107078267 2.107078267 -0.0 -8.316962216 8.316962216 -0.0 0.0 -0.0 3.627651613" Properties=species:S:1:pos:R:3:forces:R:3 config_type=Hf4Ni4 energy=-62.48365805 force="_JSON [[-0.952833, 0.952833, -0.0], [-0.523202, 0.523202, -0.0], [0.523202, -0.523202, 0.0], [0.952833, -0.952833, 0.0], [-0.0, 0.0, -0.0], [-0.855821, 0.855821, -0.0], [-0.0, 0.0, -0.0], [0.855821, -0.855821, 0.0]]" virial="3.859645713170857 -0.048244886952106575 -0.0 -0.048244886952106575 3.859645713170857 0.0 -0.0 0.0 -5.954839875063472" stress="-0.030356135128045435 0.00037944630579894685 0.0 0.00037944630579894685 -0.030356135128045435 -0.0 0.0 -0.0 0.046834848933529016" free_energy=-62.48365968 pbc="T T T"
Hf      -7.91275000       7.91275000      -0.00000000      -0.95283300       0.95283300      -0.00000000
Hf       0.07632000       2.03076000       1.81383000      -0.52320200       0.52320200      -0.00000000
Hf      -2.12772000       4.23480000       1.81383000       0.52320200      -0.52320200       0.00000000
Hf      -4.56269000       4.56269000      -0.00000000       0.95283300      -0.95283300       0.00000000
Ni      -2.07924000       2.07924000      -0.00000000      -0.00000000       0.00000000      -0.00000000
Ni      -4.26215000       6.36923000       1.81383000      -0.85582100       0.85582100      -0.00000000
Ni      -6.23772000       6.23772000      -0.00000000      -0.00000000       0.00000000      -0.00000000
Ni      -6.10621000       8.21329000       1.81383000       0.85582100      -0.85582100       0.00000000
8
Lattice="1.892069368 1.546434824 -1.546434824 -7.905128256 4.735267698 -4.735267698 0.0 2.910468175 2.910468175" Properties=species:S:1:pos:R:3:forces:R:3 config_type=Hf3Ni3Ti2 energy=-61.66484257 force="_JSON [[-0.362663, 0.01387, -0.01387], [0.0, -0.0, 0.0], [0.362663, -0.01387, 0.01387], [0.19811, -0.234583, 0.234583], [0.0, -0.0, 0.0], [-0.19811, 0.234583, -0.234583], [0.043499, -0.512452, 0.512452], [-0.043499, 0.512452, -0.512452]]" virial="6.774298425996988 -1.1151663525468816 1.1151663525468816 -1.1151663525468816 2.641554439290476 -2.8402465110050814 1.1151663525468816 -2.8402465110050814 2.641554439290476" stress="-0.05493624663930685 0.009043453644183897 -0.009043453644183897 0.009043453644183897 -0.02142171440678159 0.023033009919701357 -0.009043453644183897 0.023033009919701357 -0.02142171440678159" free_energy=-61.66484783 pbc="T T T"
Hf      -7.45841000       4.71555000      -4.71555000      -0.36266300       0.01387000      -0.01387000
Hf       0.19440000       3.01366000      -0.10320000       0.00000000      -0.00000000       0.00000000
Hf      -1.94998000       1.59014000      -1.59014000       0.36266300      -0.01387000       0.01387000
Ni      -1.64194000       4.62276000      -1.71229000       0.19811000      -0.23458300       0.23458300
Ni      -4.70420000       4.60808000      -1.69761000       0.00000000      -0.00000000       0.00000000
Ni      -5.87438000       6.13984000      -3.22937000      -0.19811000       0.23458300      -0.23458300
Ti      -3.14826000       3.25085000      -3.25085000       0.04349900      -0.51245200       0.51245200
Ti      -4.36807000       4.60127000      -4.60127000      -0.04349900       0.51245200      -0.51245200
8
Lattice="1.692241837 1.919500067 -1.919500067 -6.920990013 4.134723555 -4.134723555 -0.0 3.050448321 3.050448321" Properties=species:S:1:pos:R:3:forces:R:3 config_type=Hf3Ni4Ti energy=-61.01623802 force="_JSON [[0.104356, -0.845942, 0.845942], [0.0, 0.0, -0.0], [-0.104356, 0.845942, -0.845942], [0.366334, -0.122217, 0.122217], [1.152763, 0.226278, -0.226278], [-1.152763, -0.226278, 0.226278], [-0.366334, 0.122217, -0.122217], [0.0, 0.0, -0.0]]" virial="1.8684153399188588 -1.493643628861317 1.493643628861317 -1.493643628861317 1.124383096134097 -0.3184806159115051 1.493643628861317 -0.3184806159115051 1.124383096134097" stress="-0.015099877058448213 0.012071103615494723 -0.012071103615494723 0.012071103615494723 -0.009086869581663541 0.0025738485672952343 -0.012071103615494723 0.0025738485672952343 -0.009086869581663541" free_energy=-61.01623666 pbc="T T T"
Hf       1.12610000       1.94646000      -1.94646000       0.10435600      -0.84594200       0.84594200
Hf      -1.11466000       4.75531000      -1.70486000       0.00000000       0.00000000      -0.00000000
Hf      -3.35542000       4.51371000      -4.51371000      -0.10435600       0.84594200      -0.84594200
Ni      -0.25511000       2.88707000       0.16338000       0.36633400      -0.12221700       0.12221700
Ni      -1.57054000       1.54865000      -1.54865000       1.15276300       0.22627800      -0.22627800
Ni      -2.35102000       2.99202000      -2.99202000      -1.15276300      -0.22627800       0.22627800
Ni      -3.66645000       4.70405000      -1.65360000      -0.36633400       0.12221700      -0.12221700
Ti      -5.42128000       5.86292000      -2.81247000       0.00000000       0.00000000      -0.00000000
8
Lattice="2.031289536 2.031289536 0.0 -3.952707785 3.952707785 3.98525325 3.952707785 -3.952707785 3.98525325" Properties=species:S:1:pos:R:3:forces:R:3 config_type=Hf4Ni4 energy=-60.55185775 force="_JSON [[-1.008596, 1.008596, -0.0], [-0.0, 0.0, -0.0], [1.008596, -1.008596, -0.0], [-0.0, 0.0, -0.0], [-0.0, 0.0, 0.707105], [0.209307, -0.209307, -0.0], [-0.209307, 0.209307, -0.0], [-0.0, 0.0, -0.707105]]" virial="0.027047888461081127 1.1236632968190392 -0.0 1.1236632968190392 0.027047888461081127 0.0 -0.0 0.0 -8.423098956485827" stress="-0.00021132501598415535 -0.008779175664775747 0.0 -0.008779175664775747 -0.00021132501598415535 -0.0 0.0 -0.0 0.06580962961958108" free_energy=-60.55185804 pbc="T T T"
Hf      -3.84762000       3.84762000       3.98525000      -1.00859600       1.00859600      -0.00000000
Hf       0.02747000       2.00382000       1.99263000      -0.00000000       0.00000000      -0.00000000
Hf      -2.08145000       2.08145000       3.98525000       1.00859600      -1.00859600      -0.00000000
Hf       0.02747000       2.00382000       5.97788000      -0.00000000       0.00000000      -0.00000000
Ni       2.00382000       0.02747000       2.01747000      -0.00000000       0.00000000       0.70710500
Ni      -0.00987000       0.00987000       3.98525000       0.20930700      -0.20930700      -0.00000000
Ni       1.98623000      -1.98623000       3.98525000      -0.20930700       0.20930700      -0.00000000
Ni       2.00382000       0.02747000       5.95303000      -0.00000000       0.00000000      -0.70710500
8
Lattice="1.8687 1.8687 0.0 -9.3435 9.3435 11.2122 0.0 -1.8687 1.8687" Properties=species:S:1:pos:R:3:forces:R:3 config_type=Hf2Ni5Ti energy=-50.14901287 force="_JSON [[-1.559038, 1.559038, 1.559038], [1.559038, -1.559038, -1.559038], [-0.651372, 0.651372, 0.651372], [-0.143638, 0.143638, 0.143638], [-0.0, -0.0, 0.0], [0.143638, -0.143638, -0.143638], [0.651372, -0.651372, -0.651372], [-0.0, -0.0, 0.0]]" virial="8.655493312914354 2.5489072330995137 2.5489072330995137 2.5489072330995137 8.655493312914354 -2.5489072330995137 2.5489072330995137 -2.5489072330995137 8.655493312914354" stress="-0.08289972420998143 -0.02441267054594135 -0.02441267054594135 -0.02441267054594135 -0.08289972420998143 0.02441267054594135 -0.02441267054594135 0.02441267054594135 -0.08289972420998143" free_energy=-50.14901387 pbc="T T T"
Hf       0.00000000       0.00000000       0.00000000      -1.55903800       1.55903800       1.55903800
Hf      -5.60610000       7.47480000       9.34350000       1.55903800      -1.55903800      -1.55903800
Ni      -0.00000000       1.86870000       1.86870000      -0.65137200       0.65137200       0.65137200
Ni      -1.86870000       1.86870000       3.73740000      -0.14363800       0.14363800       0.14363800
Ni      -1.86870000       3.73740000       5.60610000      -0.00000000      -0.00000000       0.00000000
Ni      -3.73740000       5.60610000       5.60610000       0.14363800      -0.14363800      -0.14363800
Ni      -5.60610000       5.60610000       7.47480000       0.65137200      -0.65137200      -0.65137200
Ti      -7.47480000       7.47480000      11.21220000      -0.00000000      -0.00000000       0.00000000
8
Lattice="-0.0 -2.741507357 -2.741507357 -3.632376746 -3.071829957 3.071829957 -5.438447736 1.356980383 -1.356980383" Properties=species:S:1:pos:R:3:forces:R:3 config_type=HfNi3Ti4 energy=-58.52701518 force="_JSON [[-0.0, 0.0, 0.0], [0.236271, 0.285807, -0.285807], [-0.0, -0.0, 0.0], [-0.236271, -0.285807, 0.285807], [0.547343, -0.725579, 0.725579], [-0.007166, -0.099309, 0.099309], [0.007166, 0.099309, -0.099309], [-0.547343, 0.725579, -0.725579]]" virial="-1.0818982276119686 -0.6956488479526662 0.6956481075517668 -0.6956488479526662 -2.4511253131034345 -0.5482142976325488 0.6956481075517668 -0.5482142976325488 -2.4511253131034345" stress="0.009120299104541771 0.0058642535897874964 -0.005864247348278371 0.0058642535897874964 0.020662753138583307 0.004621394360568615 -0.005864247348278371 0.004621394360568615 0.020662753138583307" free_energy=-58.52701165 pbc="T T T"
Hf       0.00000000       0.00000000       0.00000000      -0.00000000       0.00000000       0.00000000
Ni      -3.65713000      -0.22573000       0.22573000       0.23627100       0.28580700      -0.28580700
Ni      -1.81619000      -1.53591000       1.53591000      -0.00000000      -0.00000000       0.00000000
Ni      -5.41369000      -1.48912000       1.48912000      -0.23627100      -0.28580700       0.28580700
Ti      -2.06160000      -1.35384000      -1.38767000       0.54734300      -0.72557900       0.72557900
Ti      -5.48231000      -1.51509000      -1.22642000      -0.00716600      -0.09930900       0.09930900
Ti      -3.58851000      -2.94127000       0.19976000       0.00716600       0.09930900      -0.09930900
Ti      -7.00922000      -3.10252000       0.36101000      -0.54734300       0.72557900      -0.72557900
6
Lattice="1.90345028 3.926931287 1.90345028 -4.173563125 2.29722057 2.297646865 -2.297646865 -2.29722057 4.173563125" Properties=species:S:1:pos:R:3:forces:R:3 config_type=Hf3Ni2Ti energy=-47.72365493 force="_JSON [[-1.64731, -0.0, 1.64731], [0.0, 0.0, 0.0], [1.64731, 0.0, -1.64731], [-0.051265, -0.0, 0.051265], [0.051265, 0.0, -0.051265], [0.0, 0.0, 0.0]]" virial="-0.7056141744437009 0.9583944324118685 0.8446967437951307 0.9583944324118685 -0.14501750865363416 0.9583944324118685 0.8446967437951307 0.9583944324118685 -0.7056141744437009" stress="0.006767612171613084 -0.009192051493452926 -0.008101566226524233 -0.009192051493452926 0.001390876618139203 -0.009192051493452926 -0.008101566226524233 -0.009192051493452926 0.006767612171613084" free_energy=-47.72365352 pbc="T T T"
Hf      -6.40013000       0.00000000       6.40013000      -1.64731000      -0.00000000       1.64731000
Hf      -2.15707000      -0.00000000       2.15707000       0.00000000       0.00000000       0.00000000
Hf      -4.38522000       0.00000000       4.38522000       1.64731000       0.00000000      -1.64731000
Ni       0.04492000       1.96347000       1.85853000      -0.05126500      -0.00000000       0.05126500
Ni      -2.45561000       1.96347000       4.35906000       0.05126500       0.00000000      -0.05126500
Ti      -4.44095000       1.96347000       6.34440000       0.00000000       0.00000000       0.00000000
6
Lattice="2.000644961 2.000644961 -0.0 -5.590108372 5.590108372 0.0 -0.0 0.0 3.653033331" Properties=species:S:1:pos:R:3:forces:R:3 config_type=Hf2Ni4 energy=-41.56588126 force="_JSON [[-0.79999, 0.79999, 0.0], [0.79999, -0.79999, -0.0], [0.55093, -0.55093, -0.0], [-0.223881, 0.223881, 0.0], [0.223881, -0.223881, -0.0], [-0.55093, 0.55093, 0.0]]" virial="5.307958019619706 -3.2219468136883664 0.0 -3.2219468136883664 5.307958019619706 -0.0 0.0 -0.0 -2.601400604000496" stress="-0.06496113390297202 0.03943160771404511 -0.0 0.03943160771404511 -0.06496113390297202 0.0 -0.0 0.0 0.03183708920588938" free_energy=-41.56588137 pbc="T T T"
Hf      -5.32813000       5.32813000       0.00000000      -0.79999000       0.79999000       0.00000000
Hf      -0.19334000       2.19399000       1.82652000       0.79999000      -0.79999000      -0.00000000
Ni      -2.05947000       2.05947000       0.00000000       0.55093000      -0.55093000      -0.00000000
Ni      -1.85516000       3.85581000       1.82652000      -0.22388100       0.22388100       0.00000000
Ni      -3.66631000       3.66631000       0.00000000       0.22388100      -0.22388100      -0.00000000
Ni      -3.46200000       5.46264000       1.82652000      -0.55093000       0.55093000       0.00000000
8
Lattice="2.252797265 2.252797265 0.0 -4.162516612 4.162516612 0.0 -0.0 0.0 7.398369709" Properties=species:S:1:pos:R:3:forces:R:3 config_type=Hf4Ni2Ti2 energy=-65.91695637 force="_JSON [[-0.946333, 0.946333, 0.0], [-0.0, -0.0, 0.0], [0.946333, -0.946333, -0.0], [-0.0, -0.0, 0.0], [-0.0, -0.0, 0.0], [-0.0, -0.0, 0.0], [-0.865779, 0.865779, 0.0], [0.865779, -0.865779, -0.0]]" virial="2.683332144293744 -5.368744496425666 -0.0 -5.368744496425666 2.683332144293744 -0.0 -0.0 -0.0 -1.7162996391703305" stress="-0.019338835430346583 0.038692662965613536 0.0 0.038692662965613536 -0.019338835430346583 0.0 0.0 0.0 0.012369410302657188" free_energy=-65.91695405 pbc="T T T"
Hf      -3.90966000       3.90966000       0.00000000      -0.94633300       0.94633300       0.00000000
Hf       0.08577000       2.16703000       1.84959000      -0.00000000      -0.00000000       0.00000000
Hf      -2.33412000       2.33412000       3.69918000       0.94633300      -0.94633300      -0.00000000
Hf       0.08577000       2.16703000       5.54878000      -0.00000000      -0.00000000       0.00000000
Ni      -1.99549000       4.24829000       5.54878000      -0.00000000      -0.00000000       0.00000000
Ni      -1.99549000       4.24829000       1.84959000      -0.00000000      -0.00000000       0.00000000
Ti      -4.09680000       4.09680000       3.69918000      -0.86577900       0.86577900       0.00000000
Ti      -2.14698000       2.14698000       0.00000000       0.86577900      -0.86577900      -0.00000000
8
Lattice="1.4518 1.4518 -1.4518 0.0 11.6144 11.6144 1.4518 -1.4518 1.4518" Properties=species:S:1:pos:R:3:forces:R:3 config_type=Hf2Ni6 energy=-47.1958407 force="_JSON [[0.0, -3.528011, -3.528011], [0.0, 3.528011, 3.528011], [-0.0, 1.182139, 1.182139], [0.0, 0.145655, 0.145655], [0.0, 0.039313, 0.039313], [0.0, -0.039313, -0.039313], [0.0, -0.145655, -0.145655], [-0.0, -1.182139, -1.182139]]" virial="11.5336263986293 0.0 0.0 0.0 9.41913737268146 -3.512143221321187 0.0 -3.512143221321187 9.41913737268146" stress="-0.11778650215590514 -0.0 -0.0 -0.0 -0.09619240350857579 0.035867562448455875 -0.0 0.035867562448455875 -0.09619240350857579" free_energy=-47.19584936 pbc="T T T"
Hf       0.00000000       0.00000000       0.00000000       0.00000000      -3.52801100      -3.52801100
Hf       1.45180000       1.45180000       1.45180000       0.00000000       3.52801100       3.52801100
Ni       0.00000000       2.90360000       2.90360000      -0.00000000       1.18213900       1.18213900
Ni       1.45180000       4.35540000       4.35540000       0.00000000       0.14565500       0.14565500
Ni       0.00000000       5.80720000       5.80720000       0.00000000       0.03931300       0.03931300
Ni       1.45180000       7.25900000       7.25900000       0.00000000      -0.03931300      -0.03931300
Ni       0.00000000       8.71080000       8.71080000       0.00000000      -0.14565500      -0.14565500
Ni       1.45180000      10.16260000      10.16260000      -0.00000000      -1.18213900      -1.18213900
9
Lattice="-1.483757609 4.408893237 1.441378018 -4.408893237 -1.441378018 -1.483757609 -1.441378018 -1.483757609 4.408893237" Properties=species:S:1:pos:R:3:forces:R:3 config_type=Hf2Ni6Ti energy=-62.36174177 force="_JSON [[-1.346489, 1.346489, -1.346489], [1.346489, -1.346489, 1.346489], [0.212142, 0.008153, -0.162078], [-0.212142, -0.008153, 0.162078], [-0.008153, 0.162078, 0.212142], [0.162078, 0.212142, 0.008153], [-0.162078, -0.212142, -0.008153], [0.008153, -0.162078, -0.212142], [-0.0, -0.0, 0.0]]" virial="3.6030264976064994 -2.276358839174179 2.276358839174179 -2.276358839174179 3.6030264976064994 -2.276358839174179 2.276358839174179 -2.276358839174179 3.6030264976064994" stress="-0.031533339922769146 0.0199224727071988 -0.0199224727071988 0.0199224727071988 -0.031533339922769146 0.0199224727071988 -0.0199224727071988 0.0199224727071988 -0.031533339922769146" free_energy=-62.36174849 pbc="T T T"
Hf      -5.81380000       2.88867000       0.03647000      -1.34648900       1.34648900      -1.34648900
Hf      -3.00398000       0.07885000       2.84629000       1.34648900      -1.34648900       1.34648900
Ni      -1.44447000       1.53530000       1.45507000       0.21214200       0.00815300      -0.16207800
Ni      -2.96442000       2.87359000       2.91145000      -0.21214200      -0.00815300       0.16207800
Ni      -4.46043000       1.47007000       4.40580000      -0.00815300       0.16207800       0.21214200
Ni      -2.93882000       0.03928000       0.05154000       0.16207800       0.21214200       0.00815300
Ni      -4.39520000      -1.48066000       1.38984000      -0.16207800      -0.21214200      -0.00815300
Ni      -5.79873000       0.01369000       2.88585000       0.00815300      -0.16207800      -0.21214200
Ti      -4.40889000       1.48376000       1.44138000      -0.00000000      -0.00000000       0.00000000
8
Lattice="2.192090466 2.192090466 -0.0 -4.030829868 4.030829868 3.419020088 4.030829868 -4.030829868 3.419020088" Properties=species:S:1:pos:R:3:forces:R:3 config_type=Hf2Ni4Ti2 energy=-57.3557245 force="_JSON [[1.584734, -1.584734, -0.0], [-1.584734, 1.584734, -0.0], [0.0, 0.0, -0.938659], [-0.487473, 0.487473, -0.0], [0.487473, -0.487473, -0.0], [-0.0, 0.0, 0.938659], [-0.0, 0.0, -0.0], [-0.0, 0.0, -0.0]]" virial="-0.8841476698309425 -3.1237670415568184 0.0 -3.1237670415568184 -0.8841476698309425 0.0 0.0 0.0 -10.99119931518745" stress="0.007316615314325775 0.025850208686305658 -0.0 0.025850208686305658 0.007316615314325775 -0.0 -0.0 -0.0 0.09095582104252362" free_energy=-57.35572812 pbc="T T T"
Hf       3.87814000      -3.87814000       3.41902000       1.58473400      -1.58473400      -0.00000000
Hf       2.16811000      -2.16811000       3.41902000      -1.58473400       1.58473400      -0.00000000
Ni       0.08834000       2.10375000       2.14049000       0.00000000       0.00000000      -0.93865900
Ni      -2.05365000       2.05365000       3.41902000      -0.48747300       0.48747300      -0.00000000
Ni       0.03824000      -0.03824000       3.41902000       0.48747300      -0.48747300      -0.00000000
Ni       0.08834000       2.10375000       4.69755000      -0.00000000       0.00000000       0.93865900
Ti       2.10375000       0.08834000       1.70951000      -0.00000000       0.00000000      -0.00000000
Ti       2.10375000       0.08834000       5.12853000      -0.00000000       0.00000000      -0.00000000
8
Lattice="1.869913893 1.597946869 -1.597946869 0.0 5.724752693 5.724752693 4.906651698 -1.614762355 1.614762355" Properties=species:S:1:pos:R:3:forces:R:3 config_type=Hf4Ni4 energy=-61.06070714 force="_JSON [[0.0, 0.141761, 0.141761], [-0.0, 0.0, -0.0], [-0.0, -0.141761, -0.141761], [-0.0, 0.0, -0.0], [-0.0, 0.0, -0.0], [0.0, 0.289128, 0.289128], [-0.0, -0.289128, -0.289128], [-0.0, 0.0, -0.0]]" virial="3.849856081079975 1.1726652289808313 -1.1726652289808313 1.1726652289808313 -1.1563977756436414 3.6882059758558317 -1.1726652289808313 3.6882059758558317 -1.1563977756436414" stress="-0.03096182365663939 -0.009430963979773485 0.009430963979773485 -0.009430963979773485 0.009300135706985846 -0.02966177972080917 0.009430963979773485 -0.02966177972080917 0.009300135706985846" free_energy=-61.06070897 pbc="T T T"
Hf       0.00000000       5.49369000       5.49369000       0.00000000       0.14176100       0.14176100
Hf       5.08242000       1.41858000       1.44380000      -0.00000000       0.00000000      -0.00000000
Hf       3.38828000       3.08503000       3.10185000      -0.00000000      -0.14176100      -0.14176100
Hf       1.69414000       1.42698000       1.43539000      -0.00000000       0.00000000      -0.00000000
Ni       1.69414000       4.28936000       4.29777000      -0.00000000       0.00000000      -0.00000000
Ni       3.38828000       5.54224000       5.55905000       0.00000000       0.28912800       0.28912800
Ni       0.00000000       3.03649000       3.03649000      -0.00000000      -0.28912800      -0.28912800
Ni       5.08242000       4.28095000       4.30618000      -0.00000000       0.00000000      -0.00000000
8
Lattice="0.0 4.135385462 -0.0 -4.683683154 -0.0 4.683683154 3.040470808 -0.0 3.040470808" Properties=species:S:1:pos:R:3:forces:R:3 config_type=Hf2Ni4Ti2 energy=-58.46545968 force="_JSON [[0.698348, 0.0, -0.698348], [-0.698348, -0.0, 0.698348], [0.497087, 0.0, -0.497087], [-0.978214, -0.0, 0.978214], [0.978214, 0.0, -0.978214], [-0.497087, -0.0, 0.497087], [-0.014708, -0.0, 0.014708], [0.014708, 0.0, -0.014708]]" virial="0.8039230984574407 0.0 0.9691236420433252 0.0 3.4764914043706954 -0.0 0.9691236420433252 -0.0 0.8039230984574407" stress="-0.006825589549883413 -0.0 -0.008228200205179278 -0.0 -0.029516633426086757 0.0 -0.008228200205179278 0.0 -0.006825589549883413" free_energy=-58.46545897 pbc="T T T"
Hf      -0.15968000       0.00000000       0.15968000       0.69834800       0.00000000      -0.69834800
Hf      -3.00377000       2.06769000       6.04424000      -0.69834800      -0.00000000       0.69834800
Ni       1.68946000       2.06769000       4.39148000       0.49708700       0.00000000      -0.49708700
Ni      -2.14981000       0.00000000       2.14981000      -0.97821400      -0.00000000       0.97821400
Ni      -1.01363000       2.06769000       4.05410000       0.97821400       0.00000000      -0.97821400
Ni      -1.81244000       0.00000000       4.85291000      -0.49708700      -0.00000000       0.49708700
Ti      -3.15500000       2.06769000       3.15500000      -0.01470800      -0.00000000       0.01470800
Ti      -0.00845000      -0.00000000       3.04892000       0.01470800       0.00000000      -0.01470800
8
Lattice="2.12828828 2.12828828 0.0 -7.138239589 7.138239589 0.0 -0.0 0.0 3.646316715" Properties=species:S:1:pos:R:3:forces:R:3 config_type=Hf2Ni4Ti2 energy=-56.58415453 force="_JSON [[-0.34941, 0.34941, 0.0], [0.34941, -0.34941, -0.0], [0.926152, -0.926152, -0.0], [0.631178, -0.631178, -0.0], [-0.631178, 0.631178, 0.0], [-0.926152, 0.926152, 0.0], [-0.036451, 0.036451, 0.0], [0.036451, -0.036451, -0.0]]" virial="7.773331688365901 -7.745376891581448 0.0 -7.745376891581448 7.773331688365901 -0.0 0.0 -0.0 -1.0731541255073582" stress="-0.07016188386513249 0.06990956461720953 -0.0 0.06990956461720953 -0.07016188386513249 0.0 -0.0 0.0 0.009686260427549487" free_energy=-56.58415705 pbc="T T T"
Hf      -0.21698000       0.21698000       0.00000000      -0.34941000       0.34941000       0.00000000
Hf      -3.18027000       5.30856000       1.82316000       0.34941000      -0.34941000      -0.00000000
Ni       0.03355000       2.09474000       1.82316000       0.92615200      -0.92615200      -0.00000000
Ni      -1.89131000       1.89131000       0.00000000       0.63117800      -0.63117800      -0.00000000
Ni      -1.50594000       3.63423000       1.82316000      -0.63117800       0.63117800       0.00000000
Ni      -3.43080000       3.43080000       0.00000000      -0.92615200       0.92615200       0.00000000
Ti      -5.38577000       5.38577000       0.00000000      -0.03645100       0.03645100       0.00000000
Ti      -5.14973000       7.27802000       1.82316000       0.03645100      -0.03645100      -0.00000000
8
Lattice="1.4034 1.4034 -1.4034 0.0 5.6136 5.6136 4.2102 -1.4034 1.4034" Properties=species:S:1:pos:R:3:forces:R:3 config_type=HfNi7 energy=-47.09654577 force="_JSON [[-0.0, -0.0, -0.0], [-0.595033, 0.885709, 0.518517], [-0.0, -0.0, 0.0], [0.595033, -0.885709, -0.518517], [0.0, -0.0, 0.0], [0.595033, 0.518517, 0.885709], [0.0, -0.0, -0.0], [-0.595033, -0.518517, -0.885709]]" virial="4.908325379499333 1.6678810024776316 -1.6678810024776316 1.6678810024776316 4.129013413195572 -2.033857876193338 -1.6678810024776316 -2.033857876193338 4.129013413195572" stress="-0.055493095358990774 -0.018856916027718884 0.018856916027718884 -0.018856916027718884 -0.046682262759928546 0.02299461839706805 0.018856916027718884 0.02299461839706805 -0.046682262759928546" free_energy=-47.09654604 pbc="T T T"
Hf       0.00000000       0.00000000       0.00000000      -0.00000000      -0.00000000      -0.00000000
Ni       4.21020000       1.40340000       1.40340000      -0.59503300       0.88570900       0.51851700
Ni       2.80680000       2.80680000       2.80680000      -0.00000000      -0.00000000       0.00000000
Ni       1.40340000       4.21020000       4.21020000       0.59503300      -0.88570900      -0.51851700
Ni       2.80680000       0.00000000       0.00000000       0.00000000      -0.00000000       0.00000000
Ni       1.40340000       1.40340000       1.40340000       0.59503300       0.51851700       0.88570900
Ni       0.00000000       2.80680000       2.80680000       0.00000000      -0.00000000      -0.00000000
Ni       4.21020000       4.21020000       4.21020000      -0.59503300      -0.51851700      -0.88570900
8
Lattice="1.585013543 1.391910103 -1.391910103 -6.821780717 4.086514753 -4.086514753 0.0 2.825218577 2.825218577" Properties=species:S:1:pos:R:3:forces:R:3 config_type=HfNi7 energy=-47.34706785 force="_JSON [[-0.0, -0.0, 0.0], [0.604747, -0.70579, 0.70579], [0.135842, -0.570736, 0.570736], [0.297245, -0.313267, 0.313267], [-0.0, -0.0, 0.0], [-0.297245, 0.313267, -0.313267], [-0.135842, 0.570736, -0.570736], [-0.604747, 0.70579, -0.70579]]" virial="1.6687161511711253 -4.007224260639129 4.007224260639129 -4.007224260639129 2.3966812589596733 -5.807873944572525 4.007224260639129 -5.807873944572525 2.3966812589596733" stress="-0.018489615698678904 0.044400622925379794 -0.044400622925379794 0.044400622925379794 -0.026555574115639975 0.06435208120095919 -0.044400622925379794 0.06435208120095919 -0.026555574115639975" free_energy=-47.34707038 pbc="T T T"
Hf       0.00000000       0.00000000       0.00000000      -0.00000000      -0.00000000       0.00000000
Ni      -0.12971000       2.82623000      -0.00102000       0.60474700      -0.70579000       0.70579000
Ni      -1.48555000       1.40331000      -1.40331000       0.13584200      -0.57073600       0.57073600
Ni      -1.27192000       4.18066000      -1.35544000       0.29724500      -0.31326700       0.31326700
Ni      -2.61838000       2.73921000      -2.73921000      -0.00000000      -0.00000000       0.00000000
Ni      -3.96485000       4.12298000      -1.29777000      -0.29724500       0.31326700      -0.31326700
Ni      -3.75122000       4.07512000      -4.07512000      -0.13584200       0.57073600      -0.57073600
Ni      -5.10706000       5.47741000      -2.65219000      -0.60474700       0.70579000      -0.70579000
8
Lattice="1.692996211 1.741626869 -1.741626869 -7.205544003 4.312150982 -4.312150982 -0.0 3.086398719 3.086398719" Properties=species:S:1:pos:R:3:forces:R:3 config_type=Hf4Ni4 energy=-61.87947805 force="_JSON [[-0.295914, 0.303398, -0.303398], [-0.570631, 0.039457, -0.039457], [0.570631, -0.039457, 0.039457], [0.295914, -0.303398, 0.303398], [1.394532, -1.05464, 1.05464], [1.353985, 0.022153, -0.022153], [-1.353985, -0.022153, 0.022153], [-1.394532, 1.05464, -1.05464]]" virial="11.446013909511636 1.3788064742443351 -1.3788064742443351 1.3788064742443351 5.732310709767105 -5.792056486985203 -1.3788064742443351 -5.792056486985203 5.732310709767105" stress="-0.09341477590982958 -0.011252904184182691 0.011252904184182691 -0.011252904184182691 -0.04678331903418572 0.047270924451627096 0.011252904184182691 0.047270924451627096 -0.04678331903418572" free_energy=-61.87948034 pbc="T T T"
Hf      -6.37311000       4.19537000      -4.19537000      -0.29591400       0.30339800      -0.30339800
Hf       0.39140000       3.24072000      -0.15432000      -0.57063100       0.03945700      -0.03945700
Hf      -1.61210000       1.44346000      -1.44346000       0.57063100      -0.03945700       0.03945700
Hf      -2.05314000       4.80096000      -1.71457000       0.29591400      -0.30339800       0.30339800
Ni      -3.32478000       2.79175000      -2.79175000       1.39453200      -1.05464000       1.05464000
Ni      -4.61908000       4.68009000      -1.59369000       1.35398500       0.02215300      -0.02215300
Ni      -3.80717000       4.31624000      -4.31624000      -1.35398500      -0.02215300       0.02215300
Ni      -5.10147000       6.20458000      -3.11818000      -1.39453200       1.05464000      -1.05464000
8
Lattice="1.564473606 1.696243066 -1.696243066 -7.106768172 4.254311086 -4.254311086 0.0 3.130983861 3.130983861" Properties=species:S:1:pos:R:3:forces:R:3 config_type=Hf3Ni5 energy=-56.5650496 force="_JSON [[-0.607829, 0.381202, -0.381202], [0.0, -0.0, -0.0], [0.607829, -0.381202, 0.381202], [-0.133361, -0.579983, 0.579983], [-0.476234, 0.224346, -0.224346], [0.0, 0.0, -0.0], [0.476234, -0.224346, 0.224346], [0.133361, 0.579983, -0.579983]]" virial="-0.4447645356025582 -0.17968064554990845 0.17968064554990845 -0.17968064554990845 0.5084588216234022 -4.393849027056968 0.17968064554990845 -4.393849027056968 0.5084588216234022" stress="0.0037960546428165683 0.0015335699997751462 -0.0015335699997751462 0.0015335699997751462 -0.004339683846171874 0.03750139605082921 -0.0015335699997751462 0.03750139605082921 -0.004339683846171874" free_energy=-56.56505225 pbc="T T T"
Hf      -6.53474000       4.23532000      -4.23532000      -0.60782900       0.38120200      -0.38120200
Hf       0.08945000       3.15743000      -0.02645000       0.00000000      -0.00000000      -0.00000000